<?xml version="3.0"?>
<VTKFile type="UnstructuredGrid" byte_order="LittleEndian">
  <UnstructuredGrid>
  <Piece NumberOfPoints="10"  NumberOfCells="23">
      <Points>
        <DataArray type="Float64" NumberOfComponents="3" Name="Coordinates" format="ascii">
0. 0. 0.
1. 0. 0.
2. 0. 0.
1. 1. 0.
0. 1. 0.
0. 0. 1.
1. 0. 1.
2. 0. 1.
1. 1. 1.
0. 1. 1.
        </DataArray>
      </Points>
      <Cells>
        <DataArray type="Int32" NumberOfComponents="1" Name="connectivity" format="ascii">
0 1
1 2 
2 3
3 1
3 4
3 0
5 6
6 7
7 8
8 6
8 9
8 5
0 5
1 6
2 7
3 8
4 9
5 1
0 6
6 2
1 7
9 3
4 8
        </DataArray>
      <DataArray type="Int32" NumberOfComponents="1" Name="offsets" format="ascii">
2
4
6
8
10
12
14
16
18
20
22
24
26
28
30
32
34
36
38
40
42
44
46
	</DataArray>
      <DataArray type="Int8" NumberOfComponents="1" Name="types" format="ascii">
3
3
3
3
3
3
3
3
3
3
3
3
3
3
3
3
3
3
3
3
3
3
3
        </DataArray>
      </Cells>
      <PointData>
      <DataArray type="Float64" NumberOfComponents="3" Name="nodalDisp" format="ascii">
           0
           0
           0
 -0.00179039
 -0.00919479
 -0.00119751
 -0.00360499
  -0.0219946
  -0.0040927
  0.00353794
 -0.00919479
  0.00223103
           0
           0
           0
           0
           0
           0
 0.000209614
 0.000462062
-0.000802493
 0.000395015
  0.00131914
  -0.0039073
-0.000462062
 0.000462062
  0.00176897
           0
           0
           0
        </DataArray>
      </PointData>
      <CellData>
        <DataArray type="Float64" NumberOfComponents="1" Name="crossSection" format="ascii">
1
1
1
1
1
1
1
1
1
1
1
1
1
1
1
1
1
1
1
1
1
1
1
        </DataArray>
      </CellData>
    </Piece>
  </UnstructuredGrid>
</VTKFile>
